Variables =  x  y  z  cell  order_cell  Rho  U  V  W  P  Mach  nn  n_repeat  
ZONE F=POINT I = 161   J = 60    K = 1
0  -1  0  0  4  0.995390659706  -8.81792181533e-005  -3.15344206441e-006  -5.12830444949e-005  31.8687422431  -1.31474498189e-005  1  1  
0  -1  0.0392699081699  0  4  0.995418219418  -9.2911832106e-005  -2.40918587427e-006  -1.81890509518e-005  31.8710463874  -1.41397214519e-005  1  1  
0  -1  0.0785398163397  0  4  0.995412270383  -8.00147870928e-005  -8.57144678121e-007  -1.77340715746e-005  31.8712916956  -1.22383516958e-005  1  1  
0  -1  0.11780972451  0  4  0.9954070783  -7.8182062105e-005  6.2033934976e-009  -1.23686072462e-006  31.8703100388  -1.1280266944e-005  1  1  
0  -1  0.157079632679  0.5  4  0.995410641008  -7.20711367392e-005  -4.90598472387e-007  -2.89609716959e-005  31.8681706256  -1.12291208342e-005  2  1  
0  -1  0.196349540849  1  4  0.995345523056  -6.42339010617e-005  -1.00138668268e-006  -1.87401615825e-005  31.8654294442  -9.80158443144e-006  1  1  
0  -1  0.235619449019  1  4  0.995402523082  -6.91864020869e-005  -6.5049929985e-007  -3.07366605024e-005  31.8638226706  -1.13013917182e-005  1  1  
0  -1  0.274889357189  1  4  0.99549087094  -6.5070644756e-005  -5.70236047503e-007  1.01288311411e-005  31.8627298132  -9.41285844266e-006  1  1  
0  -1  0.314159265359  1.5  4  0.995624815084  -8.21912307098e-005  1.96913402074e-006  3.61034808029e-005  31.8651301266  -1.26845271393e-005  2  1  
0  -1  0.353429173529  2  4  0.995505214549  1.12366770113e-005  6.97695114319e-007  -4.50217004085e-005  31.8617710994  2.07699194677e-006  1  1  
0  -1  0.392699081699  2  4  0.995518002611  -2.38658771839e-005  -1.05959303099e-006  2.80923212119e-005  31.8633883129  -3.34863056251e-006  1  1  
0  -1  0.431968989869  2  4  0.99542970286  1.40990934744e-005  -7.56812891131e-007  -9.9576047463e-005  31.8599861806  2.06631367548e-007  1  1  
0  -1  0.471238898038  2.5  4  0.995314641513  -0.000143181601405  -9.67449652749e-006  6.01828173647e-005  31.8553969561  -2.28256280879e-005  2  1  
0  -1  0.510508806208  3  4  0.995423366254  0.00013704426115  3.98335235003e-006  2.43803317226e-005  31.8611204585  1.97277028837e-005  1  1  
0  -1  0.549778714378  3  4  0.995104513707  4.40219890293e-005  -2.54609063298e-006  3.64585826383e-005  31.8470422631  9.06237124302e-006  1  1  
0  -1  0.589048622548  3  4  0.995177011955  7.1330944073e-005  -9.59324835981e-007  -9.67067951168e-005  31.8522887671  1.04560088109e-005  1  1  
0  -1  0.628318530718  3.5  4  0.994890502153  -0.000365367666978  -8.4651514884e-006  -4.39987834867e-005  31.841627806  -5.21003479094e-005  2  1  
0  -1  0.667588438888  4  4  0.995012173777  -0.000317017876679  -5.57465334117e-006  5.36616499082e-005  31.8475465053  -4.53608159028e-005  1  1  
0  -1  0.706858347058  4  4  0.994867888971  -0.000301636921062  -1.09100939199e-005  -5.68941502669e-005  31.8420356674  -4.48370344042e-005  1  1  
0  -1  0.746128255228  4  4  0.994904801268  5.91583743067e-005  -1.57354729209e-006  -2.03004087135e-005  31.8433669975  8.48023166633e-006  1  1  
0  -1  0.785398163397  4.5  4  0.994844701224  2.65701578062e-005  2.06699482633e-006  -9.56224238959e-006  31.8438721422  3.94189812817e-006  2  1  
0  -1  0.824668071567  5  4  0.994899716547  6.33235415068e-005  1.56688174108e-006  1.52625588172e-005  31.8465429264  9.55323529572e-006  1  1  
0  -1  0.863937979737  5  4  0.995003909569  -1.53872737582e-005  -2.16650618915e-006  -7.69312503609e-006  31.8465412466  -2.3534244094e-006  1  1  
0  -1  0.903207887907  5  4  0.995102711355  6.1702833654e-005  1.58675941597e-007  4.18772485926e-006  31.8467029465  9.2835380519e-006  1  1  
0  -1  0.942477796077  5.5  4  0.995266659618  3.68466525651e-005  -5.99299919511e-007  4.94370841146e-005  31.8478799734  4.56595332531e-006  2  1  
0  -1  0.981747704247  6  4  0.995319018104  -4.13233074285e-005  -1.44342115314e-006  7.1780865137e-008  31.8501022545  -5.87892704117e-006  1  1  
0  -1  1.02101761242  6  4  0.9952983275  -5.00381097656e-005  -1.15137205283e-006  1.76187539992e-005  31.8515310229  -7.62655795991e-006  1  1  
0  -1  1.06028752059  6  4  0.995343818617  -4.92246698937e-006  1.67298303081e-007  -0.000123555629566  31.8534389842  -1.51691157748e-006  1  1  
0  -1  1.09955742876  6.5  4  0.995111297498  0.000114252491134  -2.13783189985e-006  0.000172806062907  31.8477552217  2.26386849814e-005  2  1  
0  -1  1.13882733693  7  4  0.995067919808  8.92562815959e-005  1.62758658244e-006  9.84316553301e-006  31.8505573615  1.52150625021e-005  1  1  
0  -1  1.1780972451  7  4  0.994590501086  0.000176287541851  5.56851154898e-006  0.000119126673212  31.8324034643  4.6410098598e-005  1  1  
0  -1  1.21736715327  7  4  0.994364000212  0.000270934514908  -1.45259903056e-005  8.40426298473e-006  31.8194514581  1.6494097179e-005  1  1  
0  -1  1.25663706144  7.5  4  0.994115032081  2.51567336133e-006  -4.7030802181e-005  0.000192265618349  31.8088081501  -7.7565628891e-006  2  1  
0  -1  1.29590696961  8  4  0.99502645458  0.000266832258334  1.61489839128e-005  0.000101758827482  31.8429688826  4.2556570554e-005  1  1  
0  -1  1.33517687778  8  4  0.995320091522  0.000153064475309  1.89860536895e-005  -4.65573490198e-005  31.8528564823  2.11034315308e-005  1  1  
0  -1  1.37444678595  8  4  0.995128268962  5.11429172703e-005  8.04834932874e-006  4.42527483446e-005  31.8426051109  1.25836714026e-005  1  1  
0  -1  1.41371669412  4  4  0.994933097786  -0.000188520371398  1.9923794166e-006  -7.51686045713e-005  31.8330595104  -3.11088485756e-005  2  1  
0  -1  1.45298660229  0  4  0.99490323697  -0.000239141591763  -9.22700650879e-007  -2.04368381811e-005  31.8321087687  -3.60052781962e-005  1  1  
0  -1  1.49225651046  0  4  0.994949237629  -0.000129765518506  8.15291390916e-007  1.5816063614e-005  31.8351868496  -1.93237450645e-005  1  1  
0  -1  1.53152641863  0  4  0.99501830706  -9.80287506435e-005  2.8158804415e-006  1.3928360415e-005  31.8376374565  -1.49663776826e-005  1  1  
0  -1  1.57079632679  0.5  4  0.994999174836  3.71123346026e-006  2.13607594906e-006  2.28707195225e-005  31.8382556207  -1.63501726217e-007  2  1  
0  -1  1.61006623496  1  4  0.995045367282  -0.00010636423806  -2.24043302703e-006  3.51934610289e-005  31.8391914799  -1.71992976671e-005  1  1  
0  -1  1.64933614313  1  4  0.995025376754  -4.76964113621e-005  -6.94429147564e-007  1.25816107532e-005  31.8365296684  -7.253763085e-006  1  1  
0  -1  1.6886060513  1  4  0.995006653589  -1.86978978645e-005  -3.31743907588e-006  -1.85354551357e-005  31.8355407967  -2.80031797186e-006  1  1  
0  -1  1.72787595947  1.5  4  0.994965416865  4.18941477931e-005  8.10234929911e-007  5.98563958124e-005  31.8327487469  6.40438123248e-006  2  1  
0  -1  1.76714586764  2  4  0.994925085963  5.70355702074e-005  3.7657336314e-006  1.5285967711e-005  31.8317647527  8.75701125884e-006  1  1  
0  -1  1.80641577581  2  4  0.994965253335  1.90615733464e-005  3.86076539896e-006  -2.88429410775e-005  31.8334810945  2.30484643316e-006  1  1  
0  -1  1.84568568398  2  4  0.994952933695  3.45228887791e-005  3.05597570126e-006  -8.8263801515e-006  31.8345114066  6.8327857029e-006  1  1  
0  -1  1.88495559215  1  4  0.994704248759  -7.67985381254e-005  3.92020204668e-006  -3.68528483746e-005  31.8286306728  -3.06332375181e-006  2  1  
0  -1  1.92422550032  0  4  0.994478394699  -1.94589547982e-005  -7.28730623426e-006  6.14738604495e-005  31.8184662685  -4.3441810318e-006  1  1  
0  -1  1.96349540849  0  4  0.994547293163  3.6140050206e-006  -5.55753881298e-006  3.89054384825e-005  31.820446279  4.64635866888e-007  1  1  
0  -1  2.00276531666  0  4  0.994610675402  7.93068574117e-005  -3.8155571961e-006  4.0092213066e-005  31.8218714609  1.29321573715e-005  1  1  
0  -1  2.04203522483  0.5  4  0.994760655029  0.000143143791147  7.67515242369e-006  1.73791078364e-005  31.8272779999  2.27499912234e-005  2  1  
0  -1  2.081305133  1  4  0.994707754401  0.000119190043016  1.48404538714e-006  -3.76205793498e-005  31.8221004366  1.6213305222e-005  1  1  
0  -1  2.12057504117  1  4  0.994728127356  9.56136901138e-005  1.19785045787e-006  1.19788600458e-005  31.8207713312  1.4232406378e-005  1  1  
0  -1  2.15984494934  1  4  0.994700244339  9.03470263161e-005  1.25353720461e-006  -8.57286049372e-006  31.8190307933  1.30495954263e-005  1  1  
0  -1  2.19911485751  1.5  4  0.994587526028  0.000112352352594  2.51404942576e-006  1.06913843832e-005  31.8192698758  1.69658820238e-005  2  1  
0  -1  2.23838476568  2  4  0.99461666807  0.000116757988262  2.75351215359e-006  7.41669089401e-006  31.820275934  1.74604662769e-005  1  1  
0  -1  2.27765467385  2  4  0.994674453737  0.000143749561426  4.21234005577e-006  1.1587349173e-006  31.8188981357  2.14914192149e-005  1  1  
0  -1  2.31692458202  2  4  0.994606869963  0.000104558385082  3.90015465919e-006  1.80750082924e-005  31.8176435641  1.61596201925e-005  1  1  
0  -1  2.35619449019  2.5  4  0.99434155223  -4.81453672961e-005  -2.4113213541e-006  6.80896813166e-005  31.8108045017  -7.46375321747e-006  2  1  
0  -1  2.39546439836  3  4  0.994129634343  -4.0939283921e-005  -9.3295364561e-006  6.27264186009e-005  31.8034525698  -6.74882445191e-006  1  1  
0  -1  2.43473430653  3  4  0.994132251122  -0.000128116211401  -1.01377059136e-005  1.67838335898e-005  31.8027998579  -1.86402304899e-005  1  1  
0  -1  2.4740042147  3  4  0.994203040019  1.81336177847e-005  -3.15953165284e-006  1.33120903023e-005  31.806526438  4.16939873574e-006  1  1  
0  -1  2.51327412287  3.5  4  0.994504319192  -3.71261078704e-005  1.46377352904e-006  -2.60776197399e-005  31.817133968  -9.8885509071e-007  2  1  
0  -1  2.55254403104  4  4  0.994632735641  3.60429372417e-005  2.29307055985e-006  -2.47174846519e-005  31.822431343  7.83662164324e-006  1  1  
0  -1  2.59181393921  4  4  0.994755056598  1.38257901932e-005  3.30860036097e-006  1.31345563419e-006  31.8267218608  2.10953436514e-006  1  1  
0  -1  2.63108384738  4  4  0.99467216279  -4.11390407262e-005  1.45829368976e-006  2.42657921261e-005  31.8245613642  -5.78953301756e-006  1  1  
0  -1  2.67035375555  4.5  4  0.994706912026  -5.83014806703e-005  2.48062481804e-006  7.53782274636e-005  31.8230252206  -7.8665357191e-006  2  1  
0  -1  2.70962366372  5  4  0.994658931618  -0.000123613644467  -2.06971810069e-006  -1.80415541694e-005  31.8167986728  -1.8327239117e-005  1  1  
0  -1  2.74889357189  5  4  0.994724778678  -0.00013326575446  -1.84836014003e-006  3.35928313849e-005  31.8177220609  -2.04560863144e-005  1  1  
0  -1  2.78816348006  5  4  0.994744047326  -0.000119130222246  -2.57258012518e-007  -8.64478407034e-005  31.8178399959  -1.93569000186e-005  1  1  
0  -1  2.82743338823  5.5  4  0.994600392969  -0.00013804810604  6.1344088991e-008  5.26472156568e-005  31.8139701045  -1.83261472901e-005  2  1  
0  -1  2.8667032964  6  4  0.994811710749  -0.000139670564556  4.51192245872e-007  8.27670894654e-005  31.8198534813  -1.72747071612e-005  1  1  
0  -1  2.90597320457  6  4  0.994473716704  -4.4549328875e-005  1.87494270606e-006  1.81617431655e-005  31.8088583073  -5.59399749129e-006  1  1  
0  -1  2.94524311274  6  4  0.994575543496  1.55758280219e-005  1.99014624746e-006  -1.88849772916e-005  31.8126542137  2.29053921582e-006  1  1  
0  -1  2.98451302091  3  4  0.994438397044  4.30722983832e-005  2.73145668007e-006  -9.26289252902e-005  31.804465838  3.11756398764e-006  2  1  
0  -1  3.02378292908  0  4  0.994489574867  -0.000120268041248  1.0897027193e-006  2.0125878935e-005  31.8073504837  -1.77216747494e-005  1  1  
0  -1  3.06305283725  0  4  0.994414505846  -7.6780326146e-005  1.05534469007e-006  -6.17307458202e-005  31.8060580973  -1.22965509321e-005  1  1  
0  -1  3.10232274542  0  4  0.994213529514  -0.00015786362521  -4.36287761723e-006  7.0510445759e-005  31.7982945603  -1.02649015547e-005  1  1  
0  -1  3.14159265359  0.5  4  0.994117103438  -0.000109874359445  -4.24601612059e-006  -4.43561817408e-005  31.7958569138  -2.13471877818e-005  2  1  
0  -1  3.18086256176  1  4  0.993877152973  -0.000128529115526  -3.55569619703e-006  3.48453776817e-005  31.7904920953  -2.0695644632e-005  1  1  
0  -1  3.22013246993  1  4  0.993847509963  -0.000258154937827  -1.00565926204e-005  7.9980112317e-006  31.7891785427  -3.86363621285e-005  1  1  
0  -1  3.2594023781  1  4  0.993799505463  -0.000301038110605  -1.62906528325e-005  1.93699175519e-005  31.7860130392  -4.29336587547e-005  1  1  
0  -1  3.29867228627  1.5  4  0.994198642704  -0.000334708812264  -6.88185354889e-006  -5.19008701817e-005  31.7987553204  -5.20605025202e-005  2  1  
0  -1  3.33794219444  2  4  0.994304383551  -0.000262657291966  -1.02269056328e-006  -0.000109722092443  31.8016394817  -3.46646754581e-005  1  1  
0  -1  3.37721210261  2  4  0.994548764936  -0.000248073796746  3.4768568595e-006  4.31256596059e-005  31.8095709121  -3.65531230294e-005  1  1  
0  -1  3.41648201078  2  4  0.994349187367  -0.000299744014852  -3.00135280435e-006  9.41225641496e-005  31.8005007215  -4.45539399733e-005  1  1  
0  -1  3.45575191895  2.5  4  0.994428975686  -0.000348431194447  1.06011621684e-006  -1.19826180126e-005  31.8016281715  -5.0726631706e-005  2  1  
0  -1  3.49502182712  3  4  0.994361470729  -0.000388321287352  -7.67142879303e-006  -0.000114635840182  31.797575042  -5.99658457631e-005  1  1  
0  -1  3.53429173529  3  4  0.994319081279  -0.000250898489079  -4.7863866011e-006  -7.31226868331e-005  31.7963577845  -4.004579717e-005  1  1  
0  -1  3.57356164346  3  4  0.994312482877  1.48859026163e-005  -2.42031306475e-006  -5.53961271173e-005  31.7975336683  -1.44386388297e-006  1  1  
0  -1  3.61283155163  3.5  4  0.994301052682  0.00016778177865  4.10268133337e-006  -4.51934111608e-005  31.7992734243  2.25602757102e-005  2  1  
0  -1  3.6521014598  4  4  0.994217717074  0.000276042870073  1.29787215077e-006  -5.92507229792e-005  31.7965718616  4.04616657683e-005  1  1  
0  -1  3.69137136797  4  4  0.994241766815  0.00018637335709  7.69745272372e-007  -5.86825412944e-005  31.7955099604  2.91057901146e-005  1  1  
0  -1  3.73064127614  4  4  0.994026432592  0.000125096872677  -2.59886727912e-006  3.40802139199e-005  31.7860284982  2.72638154403e-005  1  1  
0  -1  3.76991118431  4.5  4  0.993960890965  -2.96729225189e-005  -3.7911369086e-006  8.14786718761e-005  31.7829232929  -1.02944647786e-005  2  1  
0  -1  3.80918109248  5  4  0.993781062729  -5.45672653633e-005  -1.46820449765e-005  -2.44004886368e-006  31.774943723  -5.33751704057e-006  1  1  
0  -1  3.84845100065  5  4  0.993863352277  -3.5449227525e-005  -1.87832456956e-006  6.76258634258e-005  31.7818121661  -2.73507045069e-006  1  1  
0  -1  3.88772090882  5  4  0.993823590104  -3.20479987199e-005  3.00451153825e-006  -5.71408589404e-005  31.7848103095  -8.23598671268e-006  1  1  
0  -1  3.92699081699  5.5  4  0.993941314055  -5.68505798845e-005  -2.4792941095e-006  0.000113081508178  31.7830361727  -4.33216378996e-006  2  1  
0  -1  3.96626072516  6  4  0.994139117631  -3.75005283396e-005  8.00649366183e-006  4.73769784361e-006  31.7847976362  -4.42304983287e-006  1  1  
0  -1  4.00553063333  6  4  0.994004637619  2.40341117406e-005  1.65349426396e-006  3.16459913578e-005  31.7737772577  5.53220852602e-006  1  1  
0  -1  4.0448005415  6  4  0.994267343834  0.000120242732916  2.59104488743e-006  -4.25217573647e-005  31.7754660213  1.89095017945e-005  1  1  
0  -1  4.08407044967  6.5  4  0.994050984692  4.84809716808e-005  6.29760041858e-006  -0.000143639983615  31.7662658602  1.13883822057e-005  2  1  
0  -1  4.12334035784  7  4  0.993981369417  2.84488710143e-005  1.54837976796e-006  7.37336234128e-005  31.7714820499  3.29215741637e-006  1  1  
0  -1  4.16261026601  7  4  0.993805788372  5.16485028817e-006  -2.91369400633e-006  -4.87858272632e-005  31.7731888459  5.0778527225e-006  1  1  
0  -1  4.20188017418  7  4  0.993871375038  4.02719948484e-005  1.33854322274e-006  -2.03393306405e-005  31.782766154  8.85417337582e-006  1  1  
0  -1  4.24115008235  7.5  4  0.993871480319  -1.60104286728e-005  -3.33385609873e-006  -0.000116580631226  31.7854974064  -2.37611101446e-006  2  1  
0  -1  4.28041999052  8  4  0.993959977695  -3.56261875224e-005  -7.11945979862e-008  -1.0118127347e-005  31.7880647789  -5.29682256184e-006  1  1  
0  -1  4.31968989869  8  4  0.99409965712  -1.63134082082e-005  5.17652200465e-007  -2.36159496737e-005  31.7908911706  -2.73458617172e-006  1  1  
0  -1  4.35895980686  8  4  0.994120292863  -1.01889020387e-005  -8.14612106976e-007  -4.23443267436e-005  31.7905203519  -2.00431248888e-006  1  1  
0  -1  4.39822971503  8.5  4  0.994080103353  3.69631323055e-005  -5.6974697824e-006  4.84229374937e-005  31.7924598734  5.5395174235e-006  2  1  
0  -1  4.4374996232  9  4  0.994138979731  7.67375257958e-005  3.45618201663e-006  -1.39197784149e-005  31.7983237608  1.15243442263e-005  1  1  
0  -1  4.47676953137  9  4  0.994155337373  3.84342663361e-005  -2.48744795173e-007  3.8071824069e-005  31.800810897  7.3111450992e-006  1  1  
0  -1  4.51603943954  9  4  0.994384779306  -2.47056352783e-005  4.09214544942e-006  -0.000122812587787  31.809176475  1.55007660895e-006  1  1  
0  -1  4.55530934771  4.5  4  0.994156231176  -4.02303087247e-005  -6.12822984386e-006  2.29979618373e-005  31.8039658596  -5.89462440967e-006  2  1  
0  -1  4.59457925588  0  4  0.994384012139  -5.42049801272e-005  1.24142673503e-006  0.000150553330321  31.8189488485  -9.27125630961e-006  1  1  
0  -1  4.63384916404  0  4  0.994142877068  -5.16046007633e-005  -6.88114131829e-007  2.80264316626e-005  31.8127531137  -7.55158716779e-006  1  1  
0  -1  4.67311907221  0  4  0.99449682345  -1.39650235026e-005  1.62611535792e-006  -4.55016835219e-005  31.824781298  1.83241940819e-007  1  1  
0  -1  4.71238898038  0.5  4  0.994465300991  -5.73531470285e-005  -3.10275905745e-006  -3.58516535346e-005  31.8171141884  -7.23036479276e-006  2  1  
0  -1  4.75165888855  1  4  0.994709963134  -5.58848223412e-005  3.35386224228e-006  9.13322431279e-005  31.8250652257  -9.80180535513e-006  1  1  
0  -1  4.79092879672  1  4  0.99474303694  -8.05878016316e-005  -2.3870225839e-006  -2.48742709551e-005  31.8275541481  -1.15916401743e-005  1  1  
0  -1  4.83019870489  1  4  0.994764502315  -3.94778805013e-005  -1.49289564236e-006  -9.4928894575e-007  31.8295490539  -5.59755424544e-006  1  1  
0  -1  4.86946861306  1.5  4  0.994742368991  -5.39620754251e-005  -1.70409394086e-006  -4.37550386979e-005  31.8305350135  -7.85510816612e-006  2  1  
0  -1  4.90873852123  2  4  0.994749896688  3.57085873461e-005  1.45417199604e-006  2.94882763054e-005  31.8317784168  6.47443420576e-006  1  1  
0  -1  4.9480084294  2  4  0.994628199533  -2.16709533691e-005  3.09492315852e-007  -1.79670566295e-005  31.8279495385  -3.51009358509e-006  1  1  
0  -1  4.98727833757  2  4  0.994703038877  1.6332142616e-005  -9.36665871464e-007  2.24043494856e-005  31.8319346516  2.51379556438e-006  1  1  
0  -1  5.02654824574  2.5  4  0.994794672183  -2.46604170573e-005  3.53432108405e-006  4.7570754995e-005  31.8370002399  -4.67221633894e-006  2  1  
0  -1  5.06581815391  3  4  0.994759535347  3.67729549591e-005  -3.36895362329e-006  -6.20928103839e-005  31.8387923142  7.99952203482e-006  1  1  
0  -1  5.10508806208  3  4  0.99517290582  0.000107447599626  4.61210458175e-006  1.6200088337e-005  31.8528195004  1.60804814504e-005  1  1  
0  -1  5.14435797025  3  4  0.995331217546  0.000251041224391  8.50801016224e-006  -0.000117938460346  31.851215355  4.57890942499e-005  1  1  
0  -1  5.18362787842  3.5  4  0.995220805591  0.000157270805426  -4.78176434848e-005  0.000290600326812  31.8431114835  3.07251802298e-005  2  1  
0  -1  5.22289778659  4  4  0.995702997413  0.000513207116615  3.14115211039e-005  3.21554180994e-005  31.8640333116  7.79496443092e-005  1  1  
0  -1  5.26216769476  4  4  0.995465078739  0.000320372393284  1.66987326907e-005  3.25954660185e-005  31.8549909558  5.26100725344e-005  1  1  
0  -1  5.30143760293  4  4  0.995542886701  0.000120435975082  4.3753972448e-006  6.04627726674e-005  31.8565349568  9.26844044749e-006  1  1  
0  -1  5.3407075111  4.5  4  0.995287985583  1.97832531385e-005  2.5915700815e-006  -5.17666720778e-005  31.8511377549  2.35860012071e-005  2  1  
0  -1  5.37997741927  5  4  0.995229361228  -1.07170510006e-005  -6.10547051633e-006  2.41556595985e-005  31.843874017  -7.88020312824e-006  1  1  
0  -1  5.41924732744  5  4  0.995327910957  5.89747473299e-005  -2.31816263073e-007  -5.17868023783e-005  31.8530758163  1.17878098889e-005  1  1  
0  -1  5.45851723561  5  4  0.995020850723  2.75355163614e-005  -2.74873974074e-005  2.47126375173e-006  31.8429559402  4.11470634914e-006  1  1  
0  -1  5.49778714378  5.5  4  0.995620107436  7.45326358128e-005  1.45114972373e-005  4.19407954077e-005  31.8666407916  2.4660331082e-005  2  1  
0  -1  5.53705705195  6  4  0.995958886279  0.000192186214362  5.60557423822e-006  5.59016390774e-006  31.8644269543  3.02958777634e-005  1  1  
0  -1  5.57632696012  6  4  0.996151241197  3.37642206879e-005  -6.19622362023e-006  0.000129762283246  31.8609130317  3.57406932951e-006  1  1  
0  -1  5.61559686829  6  4  0.996201877839  4.90418867821e-005  -4.67828208756e-006  -6.55612594408e-005  31.8603327958  5.92999119096e-006  1  1  
0  -1  5.65486677646  6.5  4  0.99589151281  6.09745841987e-005  -1.44481116467e-006  0.000142149260639  31.8541737919  9.42187183141e-006  2  1  
0  -1  5.69413668463  7  4  0.995659240159  7.97931937461e-005  -2.30193175274e-006  2.73938361044e-005  31.8549742269  1.21688439246e-005  1  1  
0  -1  5.7334065928  7  4  0.995380246525  0.000125224172488  -9.30771901044e-007  -7.14437660327e-006  31.8512135864  1.75991368415e-005  1  1  
0  -1  5.77267650097  7  4  0.995394782244  0.000156863018505  1.60435904025e-006  -1.21681639253e-005  31.8543615765  2.32403768969e-005  1  1  
0  -1  5.81194640914  7.5  4  0.995155504501  0.000185825581207  -3.77964406622e-007  3.39223621641e-005  31.8505459084  2.73929853052e-005  2  1  
0  -1  5.85121631731  8  4  0.995324974541  0.000119328204515  -6.60964852155e-007  2.57698786883e-005  31.851011883  1.65323139822e-005  1  1  
0  -1  5.89048622548  8  4  0.995600957152  0.000147244635157  1.54685102676e-006  2.42018719665e-005  31.8548285605  2.13466032166e-005  1  1  
0  -1  5.92975613365  8  4  0.995687490441  9.64162359261e-005  4.09161095378e-006  -1.12942991986e-005  31.8547661556  1.42056755808e-005  1  1  
0  -1  5.96902604182  8.5  4  0.995508268454  -2.01081375179e-006  -6.51704065733e-006  3.23876193959e-005  31.852746009  3.38767622699e-007  2  1  
0  -1  6.00829594999  9  4  0.995254071374  -4.77853442299e-005  -8.38187814439e-006  -3.31931837166e-006  31.8547618816  -6.92462866341e-006  1  1  
0  -1  6.04756585816  9  4  0.995172697598  1.78223848938e-005  -1.65844935854e-006  -2.86308232475e-005  31.8552991794  3.59289897598e-006  1  1  
0  -1  6.08683576633  9  4  0.995354904811  -1.41188172915e-005  -2.61531451636e-006  -4.87470392552e-005  31.8614831549  -7.57105628966e-007  1  1  
0  -1  6.1261056745  9.5  4  0.995177273865  -0.000127602655798  -7.43726626655e-006  6.73196837817e-005  31.8573463384  -1.90332584312e-005  2  1  
0  -1  6.16537558267  10  4  0.99527136268  -5.51279754758e-005  -2.83323416047e-007  3.84339442686e-005  31.8620477404  -8.99178277286e-006  1  1  
0  -1  6.20464549084  10  4  0.995297814934  -5.1120124747e-005  -2.65581525063e-006  -3.44678012818e-005  31.8631486126  -7.09683214464e-006  1  1  
0  -1  6.24391539901  10  4  0.995351882252  -8.65939193181e-005  -1.13274842413e-006  -1.86088911507e-005  31.8657629724  -1.24052096782e-005  1  1  
0  -1  6.28318530718  10  4  0.995378418023  -8.18384212164e-005  -6.05055386286e-006  -3.01254312939e-005  31.8687675834  -1.13002203506e-005  1  1  
0  -0.997191155368  0  0  4  0.995399310772  0.0558530907234  -0.000247417334699  -0.000452911439948  31.8687298753  0.00835070198771  1  1  
0  -0.997191155368  0.0392699081699  0  4  0.995426962345  0.0507410734765  -0.000114391883004  0.00757020729227  31.871048832  0.00766268519172  1  1  
0  -0.997191155368  0.0785398163397  0  4  0.995420981625  0.0496339664868  -1.72559235225e-006  0.0116044838904  31.871295139  0.00761399072426  1  1  
0  -0.997191155368  0.11780972451  0  4  0.995414719741  0.0496117530629  2.9036383625e-005  0.0124171557421  31.8703126076  0.00764051977368  1  1  
0  -0.997191155368  0.157079632679  0.5  4  0.99541600997  0.0437617183932  4.41227776408e-005  0.0113344641082  31.8681753128  0.00676165707783  2  1  
0  -0.997191155368  0.196349540849  1  4  0.995350371398  0.0432148957212  3.98838289173e-006  0.0112388618568  31.8654333163  0.0066702581293  1  1  
0  -0.997191155368  0.235619449019  1  4  0.995405262641  0.0367776644214  0.000107674322168  0.0102953707593  31.8638352416  0.00570431935935  1  1  
0  -0.997191155368  0.274889357189  1  4  0.995494135201  0.0332739224129  0.000230471620445  0.00679843992099  31.8627586295  0.00507289156065  1  1  
0  -0.997191155368  0.314159265359  1.5  4  0.995630637695  0.0459890815775  0.000154010032344  0.000643169144947  31.8651363748  0.00686635645767  2  1  
0  -0.997191155368  0.353429173529  2  4  0.995517973304  0.0720598288983  -0.000125350546861  -0.00196881850973  31.861745567  0.0107692251072  1  1  
0  -0.997191155368  0.392699081699  2  4  0.995531426952  0.0781403481881  -0.000294449028199  0.00220817102358  31.8633575226  0.0116772312454  1  1  
0  -0.997191155368  0.431968989869  2  4  0.995441565182  0.0703046382674  -7.4909782062e-006  0.00716514109872  31.8599746682  0.0105572755104  1  1  
0  -0.997191155368  0.471238898038  2.5  4  0.995323802224  0.0596895299954  1.30029832709e-005  0.0116829201476  31.855439371  0.00906803286728  2  1  
0  -0.997191155368  0.510508806208  3  4  0.995430325376  0.0553093503733  -2.7170810837e-005  0.0218725326355  31.8611060892  0.00888186396307  1  1  
0  -0.997191155368  0.549778714378  3  4  0.995109515306  0.0364270280755  0.000667948172508  0.016440286611  31.8471170016  0.00596998779366  1  1  
0  -0.997191155368  0.589048622548  3  4  0.995182688104  0.0311758258206  0.000436856039662  0.00289961967923  31.8523503424  0.00469634199211  1  1  
0  -0.997191155368  0.628318530718  3.5  4  0.994893249204  0.0250723619586  0.000381883317244  -0.001697097209  31.8417089498  0.00382251442395  2  1  
0  -0.997191155368  0.667588438888  4  4  0.995016803639  0.0372352694326  0.000368827134114  0.000567225113484  31.8476335449  0.00555716063752  1  1  
0  -0.997191155368  0.706858347058  4  4  0.994875891354  0.0252410941607  0.000565833653089  0.00043908442959  31.8421820498  0.00376530364728  1  1  
0  -0.997191155368  0.746128255228  4  4  0.994908667636  0.0308893698533  0.000204689804633  -0.00309202037367  31.8434001871  0.00465138178708  1  1  
0  -0.997191155368  0.785398163397  4.5  4  0.99484877459  0.0598758084329  -0.000201533597015  -0.00707765029231  31.843836741  0.0090348794615  2  1  
0  -0.997191155368  0.824668071567  5  4  0.994911075446  0.0839486058014  -0.000349316524002  -0.000551840994549  31.8464844512  0.012526137301  1  1  
0  -0.997191155368  0.863937979737  5  4  0.995012765191  0.068560105551  2.95454669368e-005  0.00310158309568  31.8465634696  0.0102570778003  1  1  
0  -0.997191155368  0.903207887907  5  4  0.995108528846  0.0467517650719  0.000262888387958  -0.001707544387  31.8467397874  0.00698538194103  1  1  
0  -0.997191155368  0.942477796077  5.5  4  0.995272144578  0.0354779998069  5.79304318431e-005  -0.00909064588738  31.8478958529  0.00551176658152  2  1  
0  -0.997191155368  0.981747704247  6  4  0.995325221184  0.0491608728345  -0.00031166417625  -0.00733251167446  31.8500868433  0.00743188277687  1  1  
0  -0.997191155368  1.02101761242  6  4  0.995308675451  0.0617285269412  -0.000301096119875  -0.0030171775873  31.8515127575  0.00923528561565  1  1  
0  -0.997191155368  1.06028752059  6  4  0.995353029404  0.0629261346784  -0.000402547902158  0.00118109381753  31.8533979025  0.00940662100139  1  1  
0  -0.997191155368  1.09955742876  6.5  4  0.995119860039  0.072630823468  -0.00118958662435  0.0134909776281  31.8475961469  0.010998547369  2  1  
0  -0.997191155368  1.13882733693  7  4  0.995086636196  0.0769503179768  0.000495433307859  0.0225055951162  31.8506205389  0.0119721773857  1  1  
0  -0.997191155368  1.1780972451  7  4  0.994592628693  0.03335829451  0.00068573296082  0.00536532742438  31.8324331297  0.00491671879828  1  1  
0  -0.997191155368  1.21736715327  7  4  0.994382114415  0.0164879042808  0.00138045105325  -0.0108496081675  31.819717592  0.00274524497487  1  1  
0  -0.997191155368  1.25663706144  7.5  4  0.994160604273  0.0426127883368  0.00297812186949  -0.046701692839  31.8094372737  0.00979897514106  2  1  
0  -0.997191155368  1.29590696961  8  4  0.995036148906  0.0486340687199  -0.00200011170562  -0.0317126728353  31.8426060768  0.0082268082982  1  1  
0  -0.997191155368  1.33517687778  8  4  0.995313780927  0.047639832647  -0.00215394200161  0.0156429091203  31.8525031101  0.00748484561669  1  1  
0  -0.997191155368  1.37444678595  8  4  0.995125997688  0.0377407300175  -0.000602995042095  0.0361018936985  31.8424983363  0.00760885006806  1  1  
0  -0.997191155368  1.41371669412  4  4  0.994939647349  0.0340234859384  0.00060964571685  0.0181883627811  31.8331277937  0.00520944812446  2  1  
0  -0.997191155368  1.45298660229  0  4  0.994910050662  0.0420842799908  0.000256481447236  0.000440409093821  31.8321704618  0.00630073859395  1  1  
0  -0.997191155368  1.49225651046  0  4  0.994957693341  0.0510256170048  -1.48385863974e-005  -0.00507491073017  31.8351852774  0.00766912373311  1  1  
0  -0.997191155368  1.53152641863  0  4  0.995026518207  0.0532356144888  0.000269303366429  -0.0130959443726  31.8376699431  0.00821288230897  1  1  