Variables =  y  cell  order_cell  Rho_aver  U_aver  V_aver  W_aver  P_aver  uu  vv  ww  uv  vw  uw  n_repeat  
ZONE F=POINT I = 37
-1  99.2647058824  4  0.996032365684  -7.88715532336e-008  6.35802023743e-009  1.18411215392e-007  32.4964953104  -1.5634206566e-007  -3.77759025943e-009  -5.38520389344e-008  5.54860784228e-009  3.64464032396e-010  -6.69734810819e-009  629  
-0.997191155368  99.2647058824  4  0.996036123963  0.0320333488844  -1.4207227764e-006  0.000405019336892  32.4964949633  0.000140614410679  1.52650156873e-008  3.48947592801e-005  -3.91547801137e-007  -5.61207469946e-009  1.25180745657e-006  629  
-0.994382310736  99.2647058824  4  0.996047343377  0.0639656882237  -4.00958836655e-006  0.000787122724261  32.4964947426  0.000559672197891  2.02776251822e-007  0.000124988846512  -3.17765587238e-006  -5.06501039836e-008  5.30854402844e-006  629  
-0.991573466104  99.2647058824  4  0.996065895455  0.0957736110212  -7.63256203161e-006  0.00114685169063  32.496493859  0.00125317803601  8.93681507803e-007  0.000252631456013  -1.08511157727e-005  -1.62617130624e-007  1.26855751269e-005  629  
-0.988764621472  103.764705882  4  0.996091637562  0.127413452749  -1.23446256301e-005  0.0014847539564  32.4964922579  0.00221393451516  2.49062530643e-006  0.00040453972084  -2.58782759527e-005  -3.40878308437e-007  2.38583058209e-005  629  
-0.985189208328  108.264705882  4  0.996134449215  0.167346404529  -1.984335771e-005  0.0018838768264  32.4964880829  0.0038002384166  6.45525113965e-006  0.000617895316776  -5.91156878701e-005  -6.1562060084e-007  4.42124353359e-005  629  
-0.981613795183  108.264705882  4  0.996187941992  0.206742154292  -2.90764741966e-005  0.00224958625459  32.4964811778  0.0057453155586  1.32505617675e-005  0.000840714381515  -0.000111361158017  -8.52245310863e-007  7.2004863347e-005  629  
-0.978038382038  108.264705882  4  0.996251258335  0.245410190135  -3.99740455059e-005  0.00258403795645  32.4964708464  0.00797327185536  2.34428440761e-005  0.00106401017819  -0.000184527648986  -9.465273413e-007  0.000107436967854  629  
-0.974462968893  112.764705882  4  0.996323339852  0.283148177105  -5.24816755074e-005  0.00289071719563  32.4964566503  0.0103891592418  3.74402541949e-005  0.00128220720103  -0.000278787025208  -8.18591373931e-007  0.000150241533239  629  
-0.969927788612  117.264705882  4  0.9964253779  0.329373119254  -7.06045250963e-005  0.00324394032725  32.4964329251  0.0135602121346  6.10702256611e-005  0.00154730985942  -0.000426145353867  -3.22085914242e-007  0.000213981662579  629  
-0.96539260833  117.264705882  4  0.996536691206  0.37343963664  -9.10158296872e-005  0.00356189643376  32.496402112  0.016666753056  9.15127054176e-005  0.00179696446171  -0.000599071083799  4.83193615526e-007  0.000285570241237  629  
-0.960857428049  117.264705882  4  0.996654434574  0.415082603985  -0.000113380862261  0.00384929009744  32.4963646052  0.019547903875  0.000128823626503  0.00203012093744  -0.000789857351145  1.43765098522e-006  0.000360838371554  629  
-0.956322247767  121.764705882  4  0.996775918401  0.454138530133  -0.00013746531216  0.00411036614345  32.4963198992  0.0220996120077  0.000172917536036  0.00224626104024  -0.000990296730584  2.4141151776e-006  0.000435217145763  629  
-0.95059530607  126.264705882  4  0.996931079072  0.499662246229  -0.000169692885957  0.00440633502321  32.4962547969  0.0247737322423  0.000238033126208  0.00249545598653  -0.00124560973322  3.50198483242e-006  0.000522267473466  629  
-0.944868364374  126.264705882  4  0.997084632987  0.54100952904  -0.000203065710367  0.00467095401917  32.4961791166  0.0268322824383  0.000313253898447  0.00272005496038  -0.00149180562879  4.31930369188e-006  0.00059747094893  629  
-0.939141422677  126.264705882  4  0.997233849582  0.57838729273  -0.000235674665012  0.0049133120762  32.4960947966  0.0283267075975  0.000397983944968  0.00292288374793  -0.00172015288789  4.86492477263e-006  0.000660114667017  629  
-0.93341448098  130.764705882  4  0.997376921566  0.612104449991  -0.000267371121663  0.00514479336727  32.4960018507  0.0293388353155  0.00049150949529  0.00310837903521  -0.00192532795376  5.19350961803e-006  0.000712811683317  629  
-0.926223262644  135.264705882  4  0.997546464567  0.649805700802  -0.000303929661057  0.00543021590694  32.4958754604  0.0300471023068  0.000619913408502  0.00332429303132  -0.00214731688847  5.34731047108e-006  0.000770101319414  629  
-0.919032044308  135.264705882  4  0.997704200534  0.68301190203  -0.000335973960329  0.00571732096964  32.4957398832  0.0302635467226  0.000758471117059  0.00352902569221  -0.00232941223121  5.3488953442e-006  0.000822903822432  629  
-0.911840825973  135.264705882  4  0.997850421991  0.712397495184  -0.000361424794402  0.00601117768995  32.4955974336  0.030097008809  0.000904672765261  0.00372787837556  -0.00247516130599  5.27348158615e-006  0.000873599894361  629  
-0.904649607637  139.058823529  4  0.997985936007  0.738554133871  -0.000382075311652  0.00630222682217  32.4954509852  0.0296336917224  0.00105615710902  0.00392271516208  -0.00258869029181  5.26237028149e-006  0.000923543378464  629  
-0.895683378805  175.307692308  4  0.99813499484  0.766510792652  -0.000442795614627  0.00657594411105  32.4952427634  0.0288118299829  0.00125643215224  0.00410292733011  -0.00273997616975  -1.51440239064e-005  0.00103958040693  481  
-0.886717149972  175.307692308  4  0.998276632312  0.791852033556  -0.000445150979565  0.00679098318982  32.4950574597  0.027644995707  0.00145084493044  0.00433119937965  -0.00281362002554  -9.22847619561e-006  0.00108406273873  481  
-0.87775092114  175.307692308  4  0.99840672376  0.814344321864  -0.000447191961583  0.00692030619081  32.4948755752  0.0263399376845  0.0016407642824  0.00453823259477  -0.00286402738277  1.79056065764e-006  0.00110213009678  481  
-0.868784692308  180.779237023  4  0.998471955808  0.82392532209  0.00127797267592  0.00503847011933  32.4947042879  0.025763770893  0.00179454178201  0.00465576685007  -0.00299618896844  -2.08323681356e-005  0.000955397572032  533  
-0.8577034146  184.807692308  4  0.99860767434  0.846011834053  0.00142721496771  0.00506247914511  32.494505172  0.0241967416674  0.00200364988277  0.00481526751712  -0.00304904896385  3.45470788802e-007  0.000901285089116  533  
-0.846622136892  184.807692308  4  0.998730685671  0.86514327444  0.00155471253005  0.00504227285036  32.4943209844  0.0227426253528  0.00219470734292  0.00490392157916  -0.00309282452643  2.33329919028e-005  0.000825257804497  533  
-0.835540859185  184.807692308  4  0.998842137309  0.881688300618  0.00166245387872  0.00498347496561  32.494155516  0.021412052991  0.00236556959068  0.00492857208769  -0.00312832614785  4.4830264687e-005  0.000759631917121  533  
-0.824459581477  214.147058824  4  0.998939012057  0.895657273089  0.00170534163222  0.00448658932119  32.4939400764  0.0203501956382  0.00251174444398  0.00492278272083  -0.00319414873929  8.28766735578e-005  0.000755035461329  697  
-0.810912536257  218.029411765  4  0.999050037675  0.910781645527  0.00181882224539  0.00441747928221  32.4937811441  0.0189668378519  0.00267232849575  0.00487629906217  -0.00320042397562  0.000105240050484  0.000733313098317  697  
-0.797365491037  218.029411765  4  0.99915011751  0.923886764735  0.00191822559281  0.00429547322339  32.4936466809  0.01768602464  0.00280571151767  0.00485063893387  -0.00318837356276  0.000123261291388  0.000724308556584  697  
-0.783818445816  218.029411765  4  0.999241807213  0.935500596806  0.00200013572434  0.00413167093113  32.4935366111  0.0165075467488  0.0029108250646  0.00487582889304  -0.00316325794901  0.000136882360074  0.000709068759015  697  
-0.770271400596  221.143314887  4  0.999327215451  0.945985528633  0.00206091054805  0.0039048782139  32.4934527546  0.0154479488336  0.00298983755851  0.00494184267564  -0.00313143494772  0.000145508181783  0.000690905883007  697  
-0.753928484418  217.362724014  4  0.999564628762  0.980547710134  -0.00218553578521  0.00523654931171  32.4936754975  0.0136713942828  0.00289628646654  0.00483282230904  -0.00295764234203  -6.6242629615e-007  0.000510766245912  465  
-0.73758556824  217.362724014  4  0.999653861584  0.990577102246  -0.00220902370793  0.00468949344579  32.4936139889  0.0128280598138  0.00292783495341  0.00487652290725  -0.00290942870331  -5.91195854725e-006  0.000500838746429  465  
-0.721242652062  217.362724014  4  0.999735955124  0.999703641012  -0.00221383754066  0.00394434853391  32.4935732686  0.0120911701927  0.00294173497983  0.00490717328032  -0.00285400558808  -6.86437402484e-006  0.000458073073687  465  
-0.704899735884  217.362724014  4  0.999811038038  1.00814725221  -0.00220199195865  0.00315978439093  32.4935445179  0.01140001871  0.00294451486511  0.00489412398079  -0.00278843257071  1.99516778356e-006  0.000374029943123  465  
